SystemName     graphene72                                                                      
SystemLabel     graphene72                                                                      
MPI.Nprocs.SIESTA         1     # default value
SpinPolarized              F     # default value
NonCollinearSpin              F     # default value
SpinOrbit              F     # default value
#:block? SpinPolarized              F
#:defined? SpinPolarized              F
#:block? NonCollinearSpin              F
#:defined? NonCollinearSpin              F
#:block? SpinOrbit              F
#:defined? SpinOrbit              F
Spin     non-polarized                                                                   
TimeReversalSymmetry              T     # default value
DebugObjects.Node         0     # default value
DebugObjects              F     # default value
XML.Write              F     # default value
timer_report_threshold          0.000000000         # default value
UseParallelTimer              T     # default value
UseTreeTimer              F     # default value
alloc_report_level         0     # default value
alloc_report_threshold          0.000000000         # default value
xc.functional     GGA                                                                             
xc.authors     PBE                                                                             
MM.Cutoff          30.00000000     Bohr     # default value
MM.UnitsEnergy     eV     # default value
MM.UnitsDistance     Ang     # default value
WriteIonPlotFiles              F     # default value
Atom.Debug.KB.Generation              F     # default value
KB.New.Reference.Orbitals              F     # default value
user-basis              F     # default value
user-basis-netcdf              F     # default value
#:block? DFTU.proj              F
#:defined? DFTU.proj              F
#:block? LDAU.proj              F
#:defined? LDAU.proj              F
Number_of_species              1
%block Chemical_species_label
 1 6 C
%endblock Chemical_species_label
ReparametrizePseudos              F     # default value
Restricted.Radial.Grid              T     # default value
Rmax.Radial.Grid          0.000000000         # default value
PAO.BasisSize     SZP                                                                             
PAO.BasisType     split                                                                           
PAO.SoftDefault              F     # default value
PAO.SoftInnerRadius         0.9000000000         # default value
PAO.SoftPotential          40.00000000         # default value
PAO.SplitNorm         0.1500000000         # default value
PAO.SplitNormH         -1.000000000         # default value
LDAU.ProjectorGenerationMethod         2     # default value
DFTU.ProjectorGenerationMethod         2     # default value
LDAU.EnergyShift         0.5000000000E-01 Ry     # default value
DFTU.EnergyShift         0.5000000000E-01 Ry     # default value
LDAU.CutoffNorm         0.9000000000         # default value
DFTU.CutoffNorm         0.9000000000         # default value
PAO.SoftDefault              F     # default value
PAO.SoftInnerRadius         0.9000000000         # default value
PAO.SoftPotential          40.00000000         # default value
LDAU.ThresholdTol         0.1000000000E-01     # default value
DFTU.ThresholdTol         0.1000000000E-01     # default value
LDAU.PopTol         0.1000000000E-02     # default value
DFTU.PopTol         0.1000000000E-02     # default value
LDAU.PotentialShift              F     # default value
DFTU.PotentialShift              F     # default value
LDAU.FirstIteration              F     # default value
DFTU.FirstIteration              F     # default value
FilterCutoff          0.000000000     Ry     # default value
FilterTol          0.000000000     Ry     # default value
KB.Rmax          6.000000000     Bohr     # default value
PAO.EnergyShift         0.2000000000E-01 Ry     # default value
PAO.SplitTailNorm              F     # default value
PAO.FixSplitTable              F     # default value
PAO.NewSplitCode              F     # default value
PAO.Filter              F     # default value
PAO.Filter              F     # default value
PAO.OldStylePolorbs              T     # default value
PAO.SplitTailNorm              F     # default value
PAO.FixSplitTable              F     # default value
PAO.NewSplitCode              F     # default value
PAO.Filter              F     # default value
Vna.Filter              F     # default value
PAO.BasisType     split                                                                           
Atom-Setup-Only              F     # default value
UseStructFile              F     # default value
MD.UseStructFile              F     # default value
LatticeConstant          1.889726878           Bohr
# above item originally: LatticeConstant          1.000000000     Ang       
#:block? LatticeParameters              F
#:block? LatticeVectors              T
%block LatticeVectors
 14.76720 0.000000 0.00000
 -7.38360 12.78877 0.00000
 0.000000 0.000000 15.0000
%endblock LatticeVectors
AtomicCoordinatesFormat     Ang                                                                             
NumberOfAtoms             72
ZM.UnitsLength     Bohr           # default value
ZM.UnitsAngle     rad            # default value
ZM.ForceTolLength         0.1555740000E-02 Ry/Bohr     # default value
ZM.ForceTolAngle         0.3565490000E-02 Ry/rad     # default value
ZM.MaxDisplLength         0.2000000000     Bohr     # default value
ZM.MaxDisplAngle         0.3000000000E-02 rad     # default value
ZM.CalcAllForces              F     # default value
%block AtomicCoordinatesAndAtomicSpecies
 -5.53770 	11.01255 	7.50000 	1
 -5.53770 	12.43353 	7.50000 	1
 -4.30710 	8.88109 	7.50000 	1
 -4.30710 	10.30206 	7.50000 	1
 -3.07650 	6.74963 	7.50000 	1
 -3.07650 	8.17060 	7.50000 	1
 -3.07650 	11.01255 	7.50000 	1
 -3.07650 	12.43353 	7.50000 	1
 -1.84590 	8.88109 	7.50000 	1
 -1.84590 	10.30206 	7.50000 	1
 -1.84590 	4.61817 	7.50000 	1
 -1.84590 	6.03914 	7.50000 	1
 -0.61530 	2.48671 	7.50000 	1
 -0.61530 	6.74963 	7.50000 	1
 -0.61530 	11.01255 	7.50000 	1
 -0.61530 	12.43353 	7.50000 	1
 -0.61530 	3.90768 	7.50000 	1
 -0.61530 	8.17060 	7.50000 	1
 0.61530 	8.88109 	7.50000 	1
 0.61530 	10.30206 	7.50000 	1
 0.61530 	0.35524 	7.50000 	1
 0.61530 	1.77622 	7.50000 	1
 0.61530 	4.61817 	7.50000 	1
 0.61530 	6.03914 	7.50000 	1
 1.84590 	2.48671 	7.50000 	1
 1.84590 	8.17060 	7.50000 	1
 1.84590 	11.01255 	7.50000 	1
 1.84590 	3.90768 	7.50000 	1
 1.84590 	6.74963 	7.50000 	1
 1.84590 	12.43353 	7.50000 	1
 3.07650 	0.35524 	7.50000 	1
 3.07650 	1.77622 	7.50000 	1
 3.07650 	4.61817 	7.50000 	1
 3.07650 	6.03914 	7.50000 	1
 3.07650 	8.88109 	7.50000 	1
 3.07650 	10.30206 	7.50000 	1
 4.30710 	2.48671 	7.50000 	1
 4.30710 	3.90768 	7.50000 	1
 4.30710 	6.74963 	7.50000 	1
 4.30710 	11.01255 	7.50000 	1
 4.30710 	8.17060 	7.50000 	1
 4.30710 	12.43353 	7.50000 	1
 5.53770 	8.88109 	7.50000 	1
 5.53770 	0.35524 	7.50000 	1
 5.53770 	1.77622 	7.50000 	1
 5.53770 	4.61817 	7.50000 	1
 5.53770 	6.03914 	7.50000 	1
 5.53770 	10.30206 	7.50000 	1
 6.76830 	2.48671 	7.50000 	1
 6.76830 	6.74963 	7.50000 	1
 6.76830 	11.01255 	7.50000 	1
 6.76830 	3.90768 	7.50000 	1
 6.76830 	8.17060 	7.50000 	1
 6.76830 	12.43353 	7.50000 	1
 7.99890 	8.88109 	7.50000 	1
 7.99890 	0.35524 	7.50000 	1
 7.99890 	1.77622 	7.50000 	1
 7.99890 	4.61817 	7.50000 	1
 7.99890 	6.03914 	7.50000 	1
 7.99890 	10.30206 	7.50000 	1
 9.22950 	2.48671 	7.50000 	1
 9.22950 	6.74963 	7.50000 	1
 9.22950 	3.90768 	7.50000 	1
 9.22950 	8.17060 	7.50000 	1
 10.46010 	0.35524 	7.50000 	1
 10.46010 	1.77622 	7.50000 	1
 10.46010 	4.61817 	7.50000 	1
 10.46010 	6.03914 	7.50000 	1
 11.69070 	2.48671 	7.50000 	1
 11.69070 	3.90768 	7.50000 	1
 12.92130 	0.35524 	7.50000 	1
 12.92130 	1.77622 	7.50000 	1
%endblock AtomicCoordinatesAndAtomicSpecies
MD.UseSaveXV              T
MD.UseSaveZM              F     # default value
WriteCoorInitial              T     # default value
MD.TypeOfRun     Verlet                                                                          
MD.InitialTimeStep         1     # default value
MD.FinalTimeStep           1000
MD.TypeOfRun     Verlet                                                                          
MaxBondDistance          6.000000000     Bohr     # default value
Output-Structure-Only              F     # default value
WriteCoorXmol              T
#:physical? MaxWalltime              F
MaxWalltime         0.1797693135+309     # default value
#:physical? MaxWalltime.Slack              F
MaxWalltime.Slack          5.000000000         # default value
HSetupOnly              F     # default value
LongOutput              F     # default value
WriteDenchar              F     # default value
WriteMullikenPop              0
WriteOrbMom              F     # default value
WriteHirshfeldPop              F     # default value
WriteVoronoiPop              F     # default value
PartialChargesAtEveryGeometry              F     # default value
PartialChargesAtEveryScfStep              F     # default value
Compat.Matel.NRTAB              F     # default value
MeshCutoff          300.0000000             Ry
# above item originally: MeshCutoff          300.0000000     Ry        
NetCharge          0.000000000         # default value
MinSCFIterations         0     # default value
MaxSCFIterations           2000
SCF.MustConverge              T
#:block? TS.MixH              F
#:defined? TS.MixH              F
#:block? MixHamiltonian              F
#:defined? MixHamiltonian              F
#:block? MixCharge              F
#:defined? MixCharge              F
TS.MixH              T     # default value
MixHamiltonian              T     # default value
MixCharge              F     # default value
SCF.Mix     Hamiltonian     # default value
Compat-pre-v4-DM-H              F     # default value
SCF.MixAfterConvergence              F     # default value
SCF.Recompute-H-After-Scf              F     # default value
DM.NumberPulay         0     # default value
DM.NumberBroyden         0     # default value
DM.FIRE.Mixing              F     # default value
DM.MixSCF1              T     # default value
SCF.Mix.First              T     # default value
SCF.Mix.First.Force              F     # default value
DM.PulayOnFile              F     # default value
DM.MixingWeight         0.2500000000         # default value
DM.OccupancyTolerance         0.1000000000E-11     # default value
DM.NumberKick         0     # default value
DM.KickMixingWeight         0.5000000000         # default value
DM.RequireHarrisConvergence              F     # default value
SCF.Harris.Converge              F     # default value
DM.HarrisTolerance         0.7349806700E-05 Ry     # default value
SCF.Harris.Tolerance         0.7349806700E-05 Ry     # default value
SCF.DM.Converge              T     # default value
DM.Tolerance         0.1000000000E-03     # default value
SCF.DM.Tolerance         0.1000000000E-05
SCF.EDM.Converge              F     # default value
SCF.EDM.Tolerance         0.7349806700E-04 Ry     # default value
SCF.H.Converge              T     # default value
SCF.H.Tolerance         0.7349806700E-04 Ry     # default value
DM.RequireEnergyConvergence              F     # default value
SCF.FreeE.Converge              F     # default value
DM.EnergyTolerance         0.7349806700E-05 Ry     # default value
SCF.FreeE.Tolerance         0.7349806700E-05 Ry     # default value
MonitorForcesInSCF              F     # default value
SCF.MonitorForces              F     # default value
UseSaveData              F     # default value
DM.UseSaveDM              F     # default value
NeglNonOverlapInt              F     # default value
SolutionMethod     diagon                                                                          
ElectronicTemperature         0.1900069269E-02         Ry
# above item originally: ElectronicTemperature          300.0000000     K         
FixSpin              F
Spin.Fix              F     # default value
ON.MaxNumIter      1000     # default value
ON.etol         0.1000000000E-07     # default value
ON.eta          0.000000000     Ry     # default value
ON.eta_alpha          0.000000000     Ry     # default value
ON.eta_beta          0.000000000     Ry     # default value
On.RcLWF          9.500000000     Bohr     # default value
ON.UseSaveLWF              F     # default value
ON.functional     kim     # default value
ON.ChemicalPotentialUse              F     # default value
ON.ChemicalPotential              F     # default value
ON.ChemicalPotentialRc          9.500000000     Bohr     # default value
ON.ChemicalPotentialTemperature         0.5000000000E-01 Ry     # default value
ON.ChemicalPotentialOrder       100     # default value
MD.VariableCell              F
compat-pre-v4-dynamics              F     # default value
MD.TypeOfRun     Verlet                                                                          
MD.NumCGsteps         0     # default value
MD.Steps         0     # default value
MD.MaxCGDispl         0.2000000000     Bohr     # default value
MD.MaxDispl         0.2000000000     Bohr     # default value
MD.MaxForceTol         0.1555740000E-02 Ry/Bohr     # default value
MD.MaxStressTol         0.6797730000E-04 Ry/Bohr**3     # default value
GeometryMustConverge              F     # default value
MD.InitialTimeStep         1     # default value
#:block? MD.Steps              F
#:defined? MD.Steps              F
MD.FinalTimeStep           1000
MD.LengthTimeStep          1.000000000             fs
# above item originally: MD.LengthTimeStep          1.000000000     fs        
MD.Quench              F     # default value
MD.FireQuench              F     # default value
MD.InitialTemperature          300.0000000              K
# above item originally: MD.InitialTemperature          300.0000000     K         
MD.TargetTemperature          300.0000000              K
# above item originally: MD.TargetTemperature          300.0000000     K         
MD.TargetPressure          0.000000000     Ry/Bohr**3     # default value
MD.NoseMass          100.0000000     Ry*fs**2     # default value
MD.ParrinelloRahmanMass          100.0000000     Ry*fs**2     # default value
MD.AnnealOption     TemperatureAndPressure     # default value
MD.TauRelax          100.0000000     fs     # default value
MD.BulkModulus         0.6797730000E-02 Ry/Bohr**3     # default value
MD.FCDispl         0.4000000000E-01 Bohr     # default value
MD.FCfirst         1     # default value
MD.FClast        72     # default value
UseSpatialDecomposition              F     # default value
UseDomainDecomposition              F     # default value
SCF.Mix.Spin     all     # default value
Mixer.Debug              F     # default value
Mixer.Debug.MPI              F     # default value
DM.NumberPulay         2     # default value
DM.NumberBroyden         0     # default value
DM.MixingWeight         0.2500000000         # default value
DM.NumberKick         0     # default value
DM.KickMixingWeight         0.5000000000         # default value
SCF.LinearMixingAfterPulay              F     # default value
SCF.MixingWeightAfterPulay         0.2500000000         # default value
SCF.Mixer.History              8
SCF.Mixer.Weight         0.2000000000    
SCF.Mixer.Kick         0     # default value
SCF.Mixer.Kick.Weight         0.5000000000         # default value
SCF.Mixer.Restart         0     # default value
SCF.Mixer.Restart.Save         1     # default value
SCF.Mixer.Method     Pulay     # default value
SCF.Mixer.Variant     original     # default value
SCF.Mixer.Linear.After        -1     # default value
SCF.Mixer.Linear.After.Weight         0.2500000000         # default value
#:block? ChargeGeometries              F
#:defined? ChargeGeometries              F
#:block? ChargeGeometries              F
#:defined? ChargeGeometries              F
Harris_functional              F     # default value
ForceAuxCell              F     # default value
#:block? Optim.Broyden.History.Steps              F
#:defined? Optim.Broyden.History.Steps              F
#:block? Optim.Broyden.Cycle.On.Maxit              F
#:defined? Optim.Broyden.Cycle.On.Maxit              F
#:block? Optim.Broyden.Variable.Weight              F
#:defined? Optim.Broyden.Variable.Weight              F
#:block? Optim.Broyden.Debug              F
#:defined? Optim.Broyden.Debug              F
#:block? Optim.Broyden.Initial.Inverse.Jacobian              F
#:defined? Optim.Broyden.Initial.Inverse.Jacobian              F
WriteKpoints              T
WriteForces              F     # default value
WriteDM              T     # default value
WriteDM.End.Of.Cycle              T     # default value
WriteH              F     # default value
WriteH.End.Of.Cycle              F     # default value
WriteDM.NetCDF              F     # default value
WriteDM.History.NetCDF              F     # default value
WriteDMHS.NetCDF              F     # default value
WriteDMHS.History.NetCDF              F     # default value
SCF.Read.Charge.NetCDF              F     # default value
SCF.Read.Deformation.Charge.NetCDF              F     # default value
Write.TSHS.History              F     # default value
SaveInitialChargeDensity              F     # default value
AnalyzeChargeDensityOnly              F     # default value
UseNewDiagk              F     # default value
Diag.WFS.Cache     none     # default value
WriteBands              F
WriteKbands              F
WriteEigenvalues              T
WriteCoorStep              F     # default value
WriteMDhistory              F     # default value
WriteMDXmol              T     # default value
WriteOrbitalIndex              T     # default value
Write.Graphviz     none     # default value
WriteCoorStep              F     # default value
SaveHS              T
ReInitialiseDM              T     # default value
DM.AllowReuse              T     # default value
DM.AllowExtrapolation              T     # default value
DM.History.Depth         1     # default value
DM.NormalizationTolerance         0.1000000000E-04     # default value
DM.NormalizeDuringSCF              T     # default value
MullikenInSCF              F     # default value
SpinInSCF              F     # default value
WarningMinimumAtomicDistance          1.000000000     Bohr     # default value
BornCharge              F     # default value
ChangeKgridInMD              F     # default value
MD.RelaxCellOnly              F     # default value
MD.RemoveIntraMolecularPressure              F     # default value
COOP.Write              F     # default value
SaveRho              F     # default value
SaveDeltaRho              F     # default value
SaveRhoXC              F     # default value
SaveElectrostaticPotential              F     # default value
SaveNeutralAtomPotential              F     # default value
SaveTotalPotential              F     # default value
SaveIonicCharge              F     # default value
SaveBaderCharge              F     # default value
SaveTotalCharge              F     # default value
Siesta2Wannier90.WriteMmn              F     # default value
Siesta2Wannier90.WriteUnk              F     # default value
Siesta2Wannier90.WriteAmn              F     # default value
Siesta2Wannier90.WriteEig              F     # default value
#:block? Siesta2Wannier90.NumberOfBandsUp              F
#:defined? Siesta2Wannier90.NumberOfBandsUp              F
#:block? Siesta2Wannier90.NumberOfBandsDown              F
#:defined? Siesta2Wannier90.NumberOfBandsDown              F
#:block? Siesta2Wannier90.NumberOfBands              F
#:defined? Siesta2Wannier90.NumberOfBands              F
Siesta2Wannier90.NumberOfBandsUp         0     # default value
Siesta2Wannier90.NumberOfBandsDown         0     # default value
Siesta2Wannier90.NumberOfBands         0     # default value
CDF.Save              F     # default value
CDF.Compress         0     # default value
CDF.Read.Parallel              F     # default value
DM.AllowReuse              T     # default value
DM.AllowExtrapolation              T     # default value
NumberOfEigenStates       648     # default value
RcSpatial          0.000000000     Bohr     # default value
ProcessorGridX         1     # default value
ProcessorGridY         1     # default value
ProcessorGridZ         1     # default value
processorY         1     # default value
blocksize        24     # default value
#:block? SpinSpiral              F
#:defined? SpinSpiral              F
TimeReversalSymmetryForKpoints              T     # default value
%block kgrid_Monkhorst_Pack
   5   0   0    0.0
   0   5   0    0.0
   0   0   1    0.0
%endblock kgrid_Monkhorst_Pack
Diag.ProcessorY         1     # default value
Diag.BlockSize        24     # default value
Diag.Use2D              F     # default value
Diag.UpperLower     lower     # default value
Diag.DivideAndConquer              T     # default value
Diag.NoExpert              F     # default value
Diag.Algorithm     Divide-and-Conquer     # default value
Diag.AbsTol         0.1000000000E-15     # default value
Diag.OrFac         0.1000000000E-05     # default value
Diag.Memory          1.000000000         # default value
#:block? ProjectedDensityOfStates              F
#:block? BandLines              T
#:defined? BandLines              T
#:block? BandPoints              F
#:defined? BandPoints              F
BandLinesScale     ReciprocalLatticeVectors                                                        
%block BandLines
 1 0.0 0.0 0.0 Γ
 15 0.5 0.0 0.0 M
 10 0.33333333 0.33333333 0.0 K
 15 0.0 0.0 0.0 Γ
%endblock BandLines
#:block? BandLines              T
#:defined? BandLines              T
#:block? BandPoints              F
#:defined? BandPoints              F
BandLinesScale     ReciprocalLatticeVectors                                                        
%block BandLines
 1 0.0 0.0 0.0 Γ
 15 0.5 0.0 0.0 M
 10 0.33333333 0.33333333 0.0 K
 15 0.0 0.0 0.0 Γ
%endblock BandLines
LongOutput              F     # default value
WriteWaveFunctions              F     # default value
#:block-line-count? MetaForce (iirrr)   0
#:block? TS.BufferAtomsLeft              F
#:defined? TS.BufferAtomsLeft              F
#:block? TS.BufferAtomsRight              F
#:defined? TS.BufferAtomsRight              F
#:list? TS.Atoms.Buffer              F
TS.HS.Save              F     # default value
TS.DE.Save              F     # default value
TS.onlyS              F     # default value
TS.S.Save              F     # default value
AtomicCoordinatesFormat     Ang                                                                             
AtomCoorFormatOut     Ang                        # default value
LatticeConstant          1.889726878           Bohr
# above item originally: LatticeConstant          1.000000000     Ang       
debug-folding              F     # default value
Sonly              F     # default value
Sonly              F     # default value
Debug.DHSCF              F     # default value
MeshSubDivisions         2     # default value
#:list? Mesh.Sizes              F
XC.Use.BSC.CellXC              F     # default value
DirectPhi              F     # default value
SimulateDoping              F     # default value
Slab.DipoleCorrection     none     # default value
Read-H-from-file              F     # default value
SingleExcitation              F     # default value
OccupationFunction     MP                                                                              
OccupationMPOrder         1     # default value
OccupationFunction     MP                                                                              
OccupationMPOrder         1     # default value
compute-forces              T     # default value
#:list? Grid.CellSampling              F
debug-folding              F     # default value
Sonly              F     # default value
UseDIISforDMExtrapolation              T     # default value
UseSVDExperimental              F     # default value
UseSVD              T     # default value
Sonly              F     # default value
#:list? Mesh.Sizes              F
XC.Use.BSC.CellXC              F     # default value
Read-H-from-file              F     # default value
compute-forces              T     # default value
debug-folding              F     # default value
Sonly              F     # default value
UseDIISforDMExtrapolation              T     # default value
UseSVDExperimental              F     # default value
UseSVD              T     # default value
Sonly              F     # default value
#:list? Mesh.Sizes              F
XC.Use.BSC.CellXC              F     # default value
Read-H-from-file              F     # default value
compute-forces              T     # default value
debug-folding              F     # default value
Sonly              F     # default value
UseDIISforDMExtrapolation              T     # default value
UseSVDExperimental              F     # default value
UseSVD              T     # default value
Sonly              F     # default value
#:list? Mesh.Sizes              F
XC.Use.BSC.CellXC              F     # default value
Read-H-from-file              F     # default value
compute-forces              T     # default value
debug-folding              F     # default value
Sonly              F     # default value
UseDIISforDMExtrapolation              T     # default value
UseSVDExperimental              F     # default value
UseSVD              T     # default value
Sonly              F     # default value
#:list? Mesh.Sizes              F
XC.Use.BSC.CellXC              F     # default value
Read-H-from-file              F     # default value
compute-forces              T     # default value
debug-folding              F     # default value
Sonly              F     # default value
UseDIISforDMExtrapolation              T     # default value
UseSVDExperimental              F     # default value
UseSVD              T     # default value
Sonly              F     # default value
#:list? Mesh.Sizes              F
XC.Use.BSC.CellXC              F     # default value
Read-H-from-file              F     # default value
compute-forces              T     # default value
debug-folding              F     # default value
Sonly              F     # default value
UseDIISforDMExtrapolation              T     # default value
UseSVDExperimental              F     # default value
UseSVD              T     # default value
Sonly              F     # default value
#:list? Mesh.Sizes              F
XC.Use.BSC.CellXC              F     # default value
Read-H-from-file              F     # default value
compute-forces              T     # default value
debug-folding              F     # default value
Sonly              F     # default value
UseDIISforDMExtrapolation              T     # default value
UseSVDExperimental              F     # default value
UseSVD              T     # default value
Sonly              F     # default value
#:list? Mesh.Sizes              F
XC.Use.BSC.CellXC              F     # default value
Read-H-from-file              F     # default value
compute-forces              T     # default value
debug-folding              F     # default value
Sonly              F     # default value
UseDIISforDMExtrapolation              T     # default value
UseSVDExperimental              F     # default value
UseSVD              T     # default value
Sonly              F     # default value
#:list? Mesh.Sizes              F
XC.Use.BSC.CellXC              F     # default value
Read-H-from-file              F     # default value
compute-forces              T     # default value
debug-folding              F     # default value
Sonly              F     # default value
UseDIISforDMExtrapolation              T     # default value
UseSVDExperimental              F     # default value
UseSVD              T     # default value
Sonly              F     # default value
#:list? Mesh.Sizes              F
XC.Use.BSC.CellXC              F     # default value
Read-H-from-file              F     # default value
compute-forces              T     # default value
debug-folding              F     # default value
Sonly              F     # default value
UseDIISforDMExtrapolation              T     # default value
UseSVDExperimental              F     # default value
UseSVD              T     # default value
Sonly              F     # default value
#:list? Mesh.Sizes              F
XC.Use.BSC.CellXC              F     # default value
Read-H-from-file              F     # default value
compute-forces              T     # default value
debug-folding              F     # default value
Sonly              F     # default value
UseDIISforDMExtrapolation              T     # default value
UseSVDExperimental              F     # default value
UseSVD              T     # default value
Sonly              F     # default value
#:list? Mesh.Sizes              F
XC.Use.BSC.CellXC              F     # default value
Read-H-from-file              F     # default value
compute-forces              T     # default value
debug-folding              F     # default value
Sonly              F     # default value
UseDIISforDMExtrapolation              T     # default value
UseSVDExperimental              F     # default value
UseSVD              T     # default value
Sonly              F     # default value
#:list? Mesh.Sizes              F
XC.Use.BSC.CellXC              F     # default value
Read-H-from-file              F     # default value
compute-forces              T     # default value
debug-folding              F     # default value
Sonly              F     # default value
UseDIISforDMExtrapolation              T     # default value
UseSVDExperimental              F     # default value
UseSVD              T     # default value
Sonly              F     # default value
#:list? Mesh.Sizes              F
XC.Use.BSC.CellXC              F     # default value
Read-H-from-file              F     # default value
compute-forces              T     # default value
debug-folding              F     # default value
Sonly              F     # default value
UseDIISforDMExtrapolation              T     # default value
UseSVDExperimental              F     # default value
UseSVD              T     # default value
Sonly              F     # default value
#:list? Mesh.Sizes              F
XC.Use.BSC.CellXC              F     # default value
Read-H-from-file              F     # default value
compute-forces              T     # default value
debug-folding              F     # default value
Sonly              F     # default value
UseDIISforDMExtrapolation              T     # default value
UseSVDExperimental              F     # default value
UseSVD              T     # default value
Sonly              F     # default value
#:list? Mesh.Sizes              F
XC.Use.BSC.CellXC              F     # default value
Read-H-from-file              F     # default value
compute-forces              T     # default value
debug-folding              F     # default value
Sonly              F     # default value
UseDIISforDMExtrapolation              T     # default value
UseSVDExperimental              F     # default value
UseSVD              T     # default value
Sonly              F     # default value
#:list? Mesh.Sizes              F
XC.Use.BSC.CellXC              F     # default value
Read-H-from-file              F     # default value
compute-forces              T     # default value
debug-folding              F     # default value
Sonly              F     # default value
UseDIISforDMExtrapolation              T     # default value
UseSVDExperimental              F     # default value
UseSVD              T     # default value
Sonly              F     # default value
#:list? Mesh.Sizes              F
XC.Use.BSC.CellXC              F     # default value
Read-H-from-file              F     # default value
compute-forces              T     # default value
debug-folding              F     # default value
Sonly              F     # default value
UseDIISforDMExtrapolation              T     # default value
UseSVDExperimental              F     # default value
UseSVD              T     # default value
Sonly              F     # default value
#:list? Mesh.Sizes              F
XC.Use.BSC.CellXC              F     # default value
Read-H-from-file              F     # default value
compute-forces              T     # default value
debug-folding              F     # default value
Sonly              F     # default value
UseDIISforDMExtrapolation              T     # default value
UseSVDExperimental              F     # default value
UseSVD              T     # default value
Sonly              F     # default value
#:list? Mesh.Sizes              F
XC.Use.BSC.CellXC              F     # default value
Read-H-from-file              F     # default value
compute-forces              T     # default value
debug-folding              F     # default value
Sonly              F     # default value
UseDIISforDMExtrapolation              T     # default value
UseSVDExperimental              F     # default value
UseSVD              T     # default value
Sonly              F     # default value
#:list? Mesh.Sizes              F
XC.Use.BSC.CellXC              F     # default value
Read-H-from-file              F     # default value
compute-forces              T     # default value
debug-folding              F     # default value
Sonly              F     # default value
UseDIISforDMExtrapolation              T     # default value
UseSVDExperimental              F     # default value
UseSVD              T     # default value
Sonly              F     # default value
#:list? Mesh.Sizes              F
XC.Use.BSC.CellXC              F     # default value
Read-H-from-file              F     # default value
compute-forces              T     # default value
debug-folding              F     # default value
Sonly              F     # default value
UseDIISforDMExtrapolation              T     # default value
UseSVDExperimental              F     # default value
UseSVD              T     # default value
Sonly              F     # default value
#:list? Mesh.Sizes              F
XC.Use.BSC.CellXC              F     # default value
Read-H-from-file              F     # default value
compute-forces              T     # default value
debug-folding              F     # default value
Sonly              F     # default value
UseDIISforDMExtrapolation              T     # default value
UseSVDExperimental              F     # default value
UseSVD              T     # default value
Sonly              F     # default value
#:list? Mesh.Sizes              F
XC.Use.BSC.CellXC              F     # default value
Read-H-from-file              F     # default value
compute-forces              T     # default value
debug-folding              F     # default value
Sonly              F     # default value
UseDIISforDMExtrapolation              T     # default value
UseSVDExperimental              F     # default value
UseSVD              T     # default value
Sonly              F     # default value
#:list? Mesh.Sizes              F
XC.Use.BSC.CellXC              F     # default value
Read-H-from-file              F     # default value
compute-forces              T     # default value
debug-folding              F     # default value
Sonly              F     # default value
UseDIISforDMExtrapolation              T     # default value
UseSVDExperimental              F     # default value
UseSVD              T     # default value
Sonly              F     # default value
#:list? Mesh.Sizes              F
XC.Use.BSC.CellXC              F     # default value
Read-H-from-file              F     # default value
compute-forces              T     # default value
debug-folding              F     # default value
Sonly              F     # default value
UseDIISforDMExtrapolation              T     # default value
UseSVDExperimental              F     # default value
UseSVD              T     # default value
Sonly              F     # default value
#:list? Mesh.Sizes              F
XC.Use.BSC.CellXC              F     # default value
Read-H-from-file              F     # default value
compute-forces              T     # default value
debug-folding              F     # default value
Sonly              F     # default value
UseDIISforDMExtrapolation              T     # default value
UseSVDExperimental              F     # default value
UseSVD              T     # default value
Sonly              F     # default value
#:list? Mesh.Sizes              F
XC.Use.BSC.CellXC              F     # default value
Read-H-from-file              F     # default value
compute-forces              T     # default value
debug-folding              F     # default value
Sonly              F     # default value
UseDIISforDMExtrapolation              T     # default value
UseSVDExperimental              F     # default value
UseSVD              T     # default value
Sonly              F     # default value
#:list? Mesh.Sizes              F
XC.Use.BSC.CellXC              F     # default value
Read-H-from-file              F     # default value
compute-forces              T     # default value
debug-folding              F     # default value
Sonly              F     # default value
UseDIISforDMExtrapolation              T     # default value
UseSVDExperimental              F     # default value
UseSVD              T     # default value
Sonly              F     # default value
#:list? Mesh.Sizes              F
XC.Use.BSC.CellXC              F     # default value
Read-H-from-file              F     # default value
compute-forces              T     # default value
debug-folding              F     # default value
Sonly              F     # default value
UseDIISforDMExtrapolation              T     # default value
UseSVDExperimental              F     # default value
UseSVD              T     # default value
Sonly              F     # default value
#:list? Mesh.Sizes              F
XC.Use.BSC.CellXC              F     # default value
Read-H-from-file              F     # default value
compute-forces              T     # default value
debug-folding              F     # default value
Sonly              F     # default value
UseDIISforDMExtrapolation              T     # default value
UseSVDExperimental              F     # default value
UseSVD              T     # default value
Sonly              F     # default value
#:list? Mesh.Sizes              F
XC.Use.BSC.CellXC              F     # default value
Read-H-from-file              F     # default value
compute-forces              T     # default value
debug-folding              F     # default value
Sonly              F     # default value
UseDIISforDMExtrapolation              T     # default value
UseSVDExperimental              F     # default value
UseSVD              T     # default value
Sonly              F     # default value
#:list? Mesh.Sizes              F
XC.Use.BSC.CellXC              F     # default value
Read-H-from-file              F     # default value
compute-forces              T     # default value
debug-folding              F     # default value
Sonly              F     # default value
UseDIISforDMExtrapolation              T     # default value
UseSVDExperimental              F     # default value
UseSVD              T     # default value
Sonly              F     # default value
#:list? Mesh.Sizes              F
XC.Use.BSC.CellXC              F     # default value
Read-H-from-file              F     # default value
compute-forces              T     # default value
debug-folding              F     # default value
Sonly              F     # default value
UseDIISforDMExtrapolation              T     # default value
UseSVDExperimental              F     # default value
UseSVD              T     # default value
Sonly              F     # default value
#:list? Mesh.Sizes              F
XC.Use.BSC.CellXC              F     # default value
Read-H-from-file              F     # default value
compute-forces              T     # default value
debug-folding              F     # default value
Sonly              F     # default value
UseDIISforDMExtrapolation              T     # default value
UseSVDExperimental              F     # default value
UseSVD              T     # default value
Sonly              F     # default value
#:list? Mesh.Sizes              F
XC.Use.BSC.CellXC              F     # default value
Read-H-from-file              F     # default value
compute-forces              T     # default value
debug-folding              F     # default value
Sonly              F     # default value
UseDIISforDMExtrapolation              T     # default value
UseSVDExperimental              F     # default value
UseSVD              T     # default value
Sonly              F     # default value
#:list? Mesh.Sizes              F
XC.Use.BSC.CellXC              F     # default value
Read-H-from-file              F     # default value
compute-forces              T     # default value
debug-folding              F     # default value
Sonly              F     # default value
UseDIISforDMExtrapolation              T     # default value
UseSVDExperimental              F     # default value
UseSVD              T     # default value
Sonly              F     # default value
#:list? Mesh.Sizes              F
XC.Use.BSC.CellXC              F     # default value
Read-H-from-file              F     # default value
compute-forces              T     # default value
debug-folding              F     # default value
Sonly              F     # default value
UseDIISforDMExtrapolation              T     # default value
UseSVDExperimental              F     # default value
UseSVD              T     # default value
Sonly              F     # default value
#:list? Mesh.Sizes              F
XC.Use.BSC.CellXC              F     # default value
Read-H-from-file              F     # default value
compute-forces              T     # default value
debug-folding              F     # default value
Sonly              F     # default value
UseDIISforDMExtrapolation              T     # default value
UseSVDExperimental              F     # default value
UseSVD              T     # default value
Sonly              F     # default value
#:list? Mesh.Sizes              F
XC.Use.BSC.CellXC              F     # default value
Read-H-from-file              F     # default value
compute-forces              T     # default value
debug-folding              F     # default value
Sonly              F     # default value
UseDIISforDMExtrapolation              T     # default value
UseSVDExperimental              F     # default value
UseSVD              T     # default value
Sonly              F     # default value
#:list? Mesh.Sizes              F
XC.Use.BSC.CellXC              F     # default value
Read-H-from-file              F     # default value
compute-forces              T     # default value
debug-folding              F     # default value
Sonly              F     # default value
UseDIISforDMExtrapolation              T     # default value
UseSVDExperimental              F     # default value
UseSVD              T     # default value
Sonly              F     # default value
#:list? Mesh.Sizes              F
XC.Use.BSC.CellXC              F     # default value
Read-H-from-file              F     # default value
compute-forces              T     # default value
debug-folding              F     # default value
Sonly              F     # default value
UseDIISforDMExtrapolation              T     # default value
UseSVDExperimental              F     # default value
UseSVD              T     # default value
Sonly              F     # default value
#:list? Mesh.Sizes              F
XC.Use.BSC.CellXC              F     # default value
Read-H-from-file              F     # default value
compute-forces              T     # default value
debug-folding              F     # default value
Sonly              F     # default value
UseDIISforDMExtrapolation              T     # default value
UseSVDExperimental              F     # default value
UseSVD              T     # default value
Sonly              F     # default value
#:list? Mesh.Sizes              F
XC.Use.BSC.CellXC              F     # default value
Read-H-from-file              F     # default value
compute-forces              T     # default value
debug-folding              F     # default value
Sonly              F     # default value
UseDIISforDMExtrapolation              T     # default value
UseSVDExperimental              F     # default value
UseSVD              T     # default value
Sonly              F     # default value
#:list? Mesh.Sizes              F
XC.Use.BSC.CellXC              F     # default value
Read-H-from-file              F     # default value
compute-forces              T     # default value
debug-folding              F     # default value
Sonly              F     # default value
UseDIISforDMExtrapolation              T     # default value
UseSVDExperimental              F     # default value
UseSVD              T     # default value
Sonly              F     # default value
#:list? Mesh.Sizes              F
XC.Use.BSC.CellXC              F     # default value
Read-H-from-file              F     # default value
compute-forces              T     # default value
debug-folding              F     # default value
Sonly              F     # default value
UseDIISforDMExtrapolation              T     # default value
UseSVDExperimental              F     # default value
UseSVD              T     # default value
Sonly              F     # default value
#:list? Mesh.Sizes              F
XC.Use.BSC.CellXC              F     # default value
Read-H-from-file              F     # default value
compute-forces              T     # default value
debug-folding              F     # default value
Sonly              F     # default value
UseDIISforDMExtrapolation              T     # default value
UseSVDExperimental              F     # default value
UseSVD              T     # default value
Sonly              F     # default value
#:list? Mesh.Sizes              F
XC.Use.BSC.CellXC              F     # default value
Read-H-from-file              F     # default value
compute-forces              T     # default value
debug-folding              F     # default value
Sonly              F     # default value
UseDIISforDMExtrapolation              T     # default value
UseSVDExperimental              F     # default value
UseSVD              T     # default value
Sonly              F     # default value
#:list? Mesh.Sizes              F
XC.Use.BSC.CellXC              F     # default value
Read-H-from-file              F     # default value
compute-forces              T     # default value
debug-folding              F     # default value
Sonly              F     # default value
UseDIISforDMExtrapolation              T     # default value
UseSVDExperimental              F     # default value
UseSVD              T     # default value
Sonly              F     # default value
#:list? Mesh.Sizes              F
XC.Use.BSC.CellXC              F     # default value
Read-H-from-file              F     # default value
compute-forces              T     # default value
debug-folding              F     # default value
Sonly              F     # default value
UseDIISforDMExtrapolation              T     # default value
UseSVDExperimental              F     # default value
UseSVD              T     # default value
Sonly              F     # default value
#:list? Mesh.Sizes              F
XC.Use.BSC.CellXC              F     # default value
Read-H-from-file              F     # default value
compute-forces              T     # default value
debug-folding              F     # default value
Sonly              F     # default value
UseDIISforDMExtrapolation              T     # default value
UseSVDExperimental              F     # default value
UseSVD              T     # default value
Sonly              F     # default value
#:list? Mesh.Sizes              F
XC.Use.BSC.CellXC              F     # default value
Read-H-from-file              F     # default value
compute-forces              T     # default value
debug-folding              F     # default value
Sonly              F     # default value
UseDIISforDMExtrapolation              T     # default value
UseSVDExperimental              F     # default value
UseSVD              T     # default value
Sonly              F     # default value
#:list? Mesh.Sizes              F
XC.Use.BSC.CellXC              F     # default value
Read-H-from-file              F     # default value
compute-forces              T     # default value
debug-folding              F     # default value
Sonly              F     # default value
UseDIISforDMExtrapolation              T     # default value
UseSVDExperimental              F     # default value
UseSVD              T     # default value
Sonly              F     # default value
#:list? Mesh.Sizes              F
XC.Use.BSC.CellXC              F     # default value
Read-H-from-file              F     # default value
compute-forces              T     # default value
debug-folding              F     # default value
Sonly              F     # default value
UseDIISforDMExtrapolation              T     # default value
UseSVDExperimental              F     # default value
UseSVD              T     # default value
Sonly              F     # default value
#:list? Mesh.Sizes              F
XC.Use.BSC.CellXC              F     # default value
Read-H-from-file              F     # default value
compute-forces              T     # default value
debug-folding              F     # default value
Sonly              F     # default value
UseDIISforDMExtrapolation              T     # default value
UseSVDExperimental              F     # default value
UseSVD              T     # default value
Sonly              F     # default value
#:list? Mesh.Sizes              F
XC.Use.BSC.CellXC              F     # default value
Read-H-from-file              F     # default value
compute-forces              T     # default value
debug-folding              F     # default value
Sonly              F     # default value
UseDIISforDMExtrapolation              T     # default value
UseSVDExperimental              F     # default value
UseSVD              T     # default value
Sonly              F     # default value
#:list? Mesh.Sizes              F
XC.Use.BSC.CellXC              F     # default value
Read-H-from-file              F     # default value
compute-forces              T     # default value
debug-folding              F     # default value
Sonly              F     # default value
UseDIISforDMExtrapolation              T     # default value
UseSVDExperimental              F     # default value
UseSVD              T     # default value
Sonly              F     # default value
#:list? Mesh.Sizes              F
XC.Use.BSC.CellXC              F     # default value
Read-H-from-file              F     # default value
compute-forces              T     # default value
debug-folding              F     # default value
Sonly              F     # default value
UseDIISforDMExtrapolation              T     # default value
UseSVDExperimental              F     # default value
UseSVD              T     # default value
Sonly              F     # default value
#:list? Mesh.Sizes              F
XC.Use.BSC.CellXC              F     # default value
Read-H-from-file              F     # default value
compute-forces              T     # default value
debug-folding              F     # default value
Sonly              F     # default value
UseDIISforDMExtrapolation              T     # default value
UseSVDExperimental              F     # default value
UseSVD              T     # default value
Sonly              F     # default value
#:list? Mesh.Sizes              F
XC.Use.BSC.CellXC              F     # default value
Read-H-from-file              F     # default value
compute-forces              T     # default value
debug-folding              F     # default value
Sonly              F     # default value
UseDIISforDMExtrapolation              T     # default value
UseSVDExperimental              F     # default value
UseSVD              T     # default value
Sonly              F     # default value
#:list? Mesh.Sizes              F
XC.Use.BSC.CellXC              F     # default value
Read-H-from-file              F     # default value
compute-forces              T     # default value
debug-folding              F     # default value
Sonly              F     # default value
UseDIISforDMExtrapolation              T     # default value
UseSVDExperimental              F     # default value
UseSVD              T     # default value
Sonly              F     # default value
#:list? Mesh.Sizes              F
XC.Use.BSC.CellXC              F     # default value
Read-H-from-file              F     # default value
compute-forces              T     # default value
debug-folding              F     # default value
Sonly              F     # default value
UseDIISforDMExtrapolation              T     # default value
UseSVDExperimental              F     # default value
UseSVD              T     # default value
Sonly              F     # default value
#:list? Mesh.Sizes              F
XC.Use.BSC.CellXC              F     # default value
Read-H-from-file              F     # default value
compute-forces              T     # default value
debug-folding              F     # default value
Sonly              F     # default value
UseDIISforDMExtrapolation              T     # default value
UseSVDExperimental              F     # default value
UseSVD              T     # default value
Sonly              F     # default value
#:list? Mesh.Sizes              F
XC.Use.BSC.CellXC              F     # default value
Read-H-from-file              F     # default value
compute-forces              T     # default value
debug-folding              F     # default value
Sonly              F     # default value
UseDIISforDMExtrapolation              T     # default value
UseSVDExperimental              F     # default value
UseSVD              T     # default value
Sonly              F     # default value
#:list? Mesh.Sizes              F
XC.Use.BSC.CellXC              F     # default value
Read-H-from-file              F     # default value
compute-forces              T     # default value
debug-folding              F     # default value
Sonly              F     # default value
UseDIISforDMExtrapolation              T     # default value
UseSVDExperimental              F     # default value
UseSVD              T     # default value
Sonly              F     # default value
#:list? Mesh.Sizes              F
XC.Use.BSC.CellXC              F     # default value
Read-H-from-file              F     # default value
compute-forces              T     # default value
debug-folding              F     # default value
Sonly              F     # default value
UseDIISforDMExtrapolation              T     # default value
UseSVDExperimental              F     # default value
UseSVD              T     # default value
Sonly              F     # default value
#:list? Mesh.Sizes              F
XC.Use.BSC.CellXC              F     # default value
Read-H-from-file              F     # default value
compute-forces              T     # default value
debug-folding              F     # default value
Sonly              F     # default value
UseDIISforDMExtrapolation              T     # default value
UseSVDExperimental              F     # default value
UseSVD              T     # default value
Sonly              F     # default value
#:list? Mesh.Sizes              F
XC.Use.BSC.CellXC              F     # default value
Read-H-from-file              F     # default value
compute-forces              T     # default value
debug-folding              F     # default value
Sonly              F     # default value
UseDIISforDMExtrapolation              T     # default value
UseSVDExperimental              F     # default value
UseSVD              T     # default value
Sonly              F     # default value
#:list? Mesh.Sizes              F
XC.Use.BSC.CellXC              F     # default value
Read-H-from-file              F     # default value
compute-forces              T     # default value
debug-folding              F     # default value
Sonly              F     # default value
UseDIISforDMExtrapolation              T     # default value
UseSVDExperimental              F     # default value
UseSVD              T     # default value
Sonly              F     # default value
#:list? Mesh.Sizes              F
XC.Use.BSC.CellXC              F     # default value
Read-H-from-file              F     # default value
compute-forces              T     # default value
debug-folding              F     # default value
Sonly              F     # default value
UseDIISforDMExtrapolation              T     # default value
UseSVDExperimental              F     # default value
UseSVD              T     # default value
Sonly              F     # default value
#:list? Mesh.Sizes              F
XC.Use.BSC.CellXC              F     # default value
Read-H-from-file              F     # default value
compute-forces              T     # default value
debug-folding              F     # default value
Sonly              F     # default value
UseDIISforDMExtrapolation              T     # default value
UseSVDExperimental              F     # default value
UseSVD              T     # default value
Sonly              F     # default value
#:list? Mesh.Sizes              F
XC.Use.BSC.CellXC              F     # default value
Read-H-from-file              F     # default value
compute-forces              T     # default value
debug-folding              F     # default value
Sonly              F     # default value
UseDIISforDMExtrapolation              T     # default value
UseSVDExperimental              F     # default value
UseSVD              T     # default value
Sonly              F     # default value
#:list? Mesh.Sizes              F
XC.Use.BSC.CellXC              F     # default value
Read-H-from-file              F     # default value
compute-forces              T     # default value
debug-folding              F     # default value
Sonly              F     # default value
UseDIISforDMExtrapolation              T     # default value
UseSVDExperimental              F     # default value
UseSVD              T     # default value
Sonly              F     # default value
#:list? Mesh.Sizes              F
XC.Use.BSC.CellXC              F     # default value
Read-H-from-file              F     # default value
compute-forces              T     # default value
debug-folding              F     # default value
Sonly              F     # default value
UseDIISforDMExtrapolation              T     # default value
UseSVDExperimental              F     # default value
UseSVD              T     # default value
Sonly              F     # default value
#:list? Mesh.Sizes              F
XC.Use.BSC.CellXC              F     # default value
Read-H-from-file              F     # default value
compute-forces              T     # default value
debug-folding              F     # default value
Sonly              F     # default value
UseDIISforDMExtrapolation              T     # default value
UseSVDExperimental              F     # default value
UseSVD              T     # default value
Sonly              F     # default value
#:list? Mesh.Sizes              F
XC.Use.BSC.CellXC              F     # default value
Read-H-from-file              F     # default value
compute-forces              T     # default value
debug-folding              F     # default value
Sonly              F     # default value
UseDIISforDMExtrapolation              T     # default value
UseSVDExperimental              F     # default value
UseSVD              T     # default value
Sonly              F     # default value
#:list? Mesh.Sizes              F
XC.Use.BSC.CellXC              F     # default value
Read-H-from-file              F     # default value
compute-forces              T     # default value
debug-folding              F     # default value
Sonly              F     # default value
UseDIISforDMExtrapolation              T     # default value
UseSVDExperimental              F     # default value
UseSVD              T     # default value
Sonly              F     # default value
#:list? Mesh.Sizes              F
XC.Use.BSC.CellXC              F     # default value
Read-H-from-file              F     # default value
compute-forces              T     # default value
debug-folding              F     # default value
Sonly              F     # default value
UseDIISforDMExtrapolation              T     # default value
UseSVDExperimental              F     # default value
UseSVD              T     # default value
Sonly              F     # default value
#:list? Mesh.Sizes              F
XC.Use.BSC.CellXC              F     # default value
Read-H-from-file              F     # default value
compute-forces              T     # default value
debug-folding              F     # default value
Sonly              F     # default value
UseDIISforDMExtrapolation              T     # default value
UseSVDExperimental              F     # default value
UseSVD              T     # default value
Sonly              F     # default value
#:list? Mesh.Sizes              F
XC.Use.BSC.CellXC              F     # default value
Read-H-from-file              F     # default value
compute-forces              T     # default value
debug-folding              F     # default value
Sonly              F     # default value
UseDIISforDMExtrapolation              T     # default value
UseSVDExperimental              F     # default value
UseSVD              T     # default value
Sonly              F     # default value
#:list? Mesh.Sizes              F
XC.Use.BSC.CellXC              F     # default value
Read-H-from-file              F     # default value
compute-forces              T     # default value
debug-folding              F     # default value
Sonly              F     # default value
UseDIISforDMExtrapolation              T     # default value
UseSVDExperimental              F     # default value
UseSVD              T     # default value
Sonly              F     # default value
#:list? Mesh.Sizes              F
XC.Use.BSC.CellXC              F     # default value
Read-H-from-file              F     # default value
compute-forces              T     # default value
debug-folding              F     # default value
Sonly              F     # default value
UseDIISforDMExtrapolation              T     # default value
UseSVDExperimental              F     # default value
UseSVD              T     # default value
Sonly              F     # default value
#:list? Mesh.Sizes              F
XC.Use.BSC.CellXC              F     # default value
Read-H-from-file              F     # default value
compute-forces              T     # default value
debug-folding              F     # default value
Sonly              F     # default value
UseDIISforDMExtrapolation              T     # default value
UseSVDExperimental              F     # default value
UseSVD              T     # default value
Sonly              F     # default value
#:list? Mesh.Sizes              F
XC.Use.BSC.CellXC              F     # default value
Read-H-from-file              F     # default value
compute-forces              T     # default value
debug-folding              F     # default value
Sonly              F     # default value
UseDIISforDMExtrapolation              T     # default value
UseSVDExperimental              F     # default value
UseSVD              T     # default value
Sonly              F     # default value
#:list? Mesh.Sizes              F
XC.Use.BSC.CellXC              F     # default value
Read-H-from-file              F     # default value
compute-forces              T     # default value
debug-folding              F     # default value
Sonly              F     # default value
UseDIISforDMExtrapolation              T     # default value
UseSVDExperimental              F     # default value
UseSVD              T     # default value
Sonly              F     # default value
#:list? Mesh.Sizes              F
XC.Use.BSC.CellXC              F     # default value
Read-H-from-file              F     # default value
compute-forces              T     # default value
debug-folding              F     # default value
Sonly              F     # default value
UseDIISforDMExtrapolation              T     # default value
UseSVDExperimental              F     # default value
UseSVD              T     # default value
Sonly              F     # default value
#:list? Mesh.Sizes              F
XC.Use.BSC.CellXC              F     # default value
Read-H-from-file              F     # default value
compute-forces              T     # default value
debug-folding              F     # default value
Sonly              F     # default value
UseDIISforDMExtrapolation              T     # default value
UseSVDExperimental              F     # default value
UseSVD              T     # default value
Sonly              F     # default value
#:list? Mesh.Sizes              F
XC.Use.BSC.CellXC              F     # default value
Read-H-from-file              F     # default value
compute-forces              T     # default value
debug-folding              F     # default value
Sonly              F     # default value
UseDIISforDMExtrapolation              T     # default value
UseSVDExperimental              F     # default value
UseSVD              T     # default value
Sonly              F     # default value
#:list? Mesh.Sizes              F
XC.Use.BSC.CellXC              F     # default value
Read-H-from-file              F     # default value
compute-forces              T     # default value
debug-folding              F     # default value
Sonly              F     # default value
UseDIISforDMExtrapolation              T     # default value
UseSVDExperimental              F     # default value
UseSVD              T     # default value
Sonly              F     # default value
#:list? Mesh.Sizes              F
XC.Use.BSC.CellXC              F     # default value
Read-H-from-file              F     # default value
compute-forces              T     # default value
debug-folding              F     # default value
Sonly              F     # default value
UseDIISforDMExtrapolation              T     # default value
UseSVDExperimental              F     # default value
UseSVD              T     # default value
Sonly              F     # default value
#:list? Mesh.Sizes              F
XC.Use.BSC.CellXC              F     # default value
Read-H-from-file              F     # default value
compute-forces              T     # default value
debug-folding              F     # default value
Sonly              F     # default value
UseDIISforDMExtrapolation              T     # default value
UseSVDExperimental              F     # default value
UseSVD              T     # default value
Sonly              F     # default value
#:list? Mesh.Sizes              F
XC.Use.BSC.CellXC              F     # default value
Read-H-from-file              F     # default value
compute-forces              T     # default value
debug-folding              F     # default value
Sonly              F     # default value
UseDIISforDMExtrapolation              T     # default value
UseSVDExperimental              F     # default value
UseSVD              T     # default value
Sonly              F     # default value
#:list? Mesh.Sizes              F
XC.Use.BSC.CellXC              F     # default value
Read-H-from-file              F     # default value
compute-forces              T     # default value
debug-folding              F     # default value
Sonly              F     # default value
UseDIISforDMExtrapolation              T     # default value
UseSVDExperimental              F     # default value
UseSVD              T     # default value
Sonly              F     # default value
#:list? Mesh.Sizes              F
XC.Use.BSC.CellXC              F     # default value
Read-H-from-file              F     # default value
compute-forces              T     # default value
debug-folding              F     # default value
Sonly              F     # default value
UseDIISforDMExtrapolation              T     # default value
UseSVDExperimental              F     # default value
UseSVD              T     # default value
Sonly              F     # default value
#:list? Mesh.Sizes              F
XC.Use.BSC.CellXC              F     # default value
Read-H-from-file              F     # default value
compute-forces              T     # default value
debug-folding              F     # default value
Sonly              F     # default value
UseDIISforDMExtrapolation              T     # default value
UseSVDExperimental              F     # default value
UseSVD              T     # default value
Sonly              F     # default value
#:list? Mesh.Sizes              F
XC.Use.BSC.CellXC              F     # default value
Read-H-from-file              F     # default value
compute-forces              T     # default value
debug-folding              F     # default value
Sonly              F     # default value
UseDIISforDMExtrapolation              T     # default value
UseSVDExperimental              F     # default value
UseSVD              T     # default value
Sonly              F     # default value
#:list? Mesh.Sizes              F
XC.Use.BSC.CellXC              F     # default value
Read-H-from-file              F     # default value
compute-forces              T     # default value
debug-folding              F     # default value
Sonly              F     # default value
UseDIISforDMExtrapolation              T     # default value
UseSVDExperimental              F     # default value
UseSVD              T     # default value
Sonly              F     # default value
#:list? Mesh.Sizes              F
XC.Use.BSC.CellXC              F     # default value
Read-H-from-file              F     # default value
compute-forces              T     # default value
debug-folding              F     # default value
Sonly              F     # default value
UseDIISforDMExtrapolation              T     # default value
UseSVDExperimental              F     # default value
UseSVD              T     # default value
Sonly              F     # default value
#:list? Mesh.Sizes              F
XC.Use.BSC.CellXC              F     # default value
Read-H-from-file              F     # default value
compute-forces              T     # default value
debug-folding              F     # default value
Sonly              F     # default value
UseDIISforDMExtrapolation              T     # default value
UseSVDExperimental              F     # default value
UseSVD              T     # default value
Sonly              F     # default value
#:list? Mesh.Sizes              F
XC.Use.BSC.CellXC              F     # default value
Read-H-from-file              F     # default value
compute-forces              T     # default value
debug-folding              F     # default value
Sonly              F     # default value
UseDIISforDMExtrapolation              T     # default value
UseSVDExperimental              F     # default value
UseSVD              T     # default value
Sonly              F     # default value
#:list? Mesh.Sizes              F
XC.Use.BSC.CellXC              F     # default value
Read-H-from-file              F     # default value
compute-forces              T     # default value
debug-folding              F     # default value
Sonly              F     # default value
UseDIISforDMExtrapolation              T     # default value
UseSVDExperimental              F     # default value
UseSVD              T     # default value
Sonly              F     # default value
#:list? Mesh.Sizes              F
XC.Use.BSC.CellXC              F     # default value
Read-H-from-file              F     # default value
compute-forces              T     # default value
debug-folding              F     # default value
Sonly              F     # default value
UseDIISforDMExtrapolation              T     # default value
UseSVDExperimental              F     # default value
UseSVD              T     # default value
Sonly              F     # default value
#:list? Mesh.Sizes              F
XC.Use.BSC.CellXC              F     # default value
Read-H-from-file              F     # default value
compute-forces              T     # default value
debug-folding              F     # default value
Sonly              F     # default value
UseDIISforDMExtrapolation              T     # default value
UseSVDExperimental              F     # default value
UseSVD              T     # default value
Sonly              F     # default value
#:list? Mesh.Sizes              F
XC.Use.BSC.CellXC              F     # default value
Read-H-from-file              F     # default value
compute-forces              T     # default value
debug-folding              F     # default value
Sonly              F     # default value
UseDIISforDMExtrapolation              T     # default value
UseSVDExperimental              F     # default value
UseSVD              T     # default value
Sonly              F     # default value
#:list? Mesh.Sizes              F
XC.Use.BSC.CellXC              F     # default value
Read-H-from-file              F     # default value
compute-forces              T     # default value
debug-folding              F     # default value
Sonly              F     # default value
UseDIISforDMExtrapolation              T     # default value
UseSVDExperimental              F     # default value
UseSVD              T     # default value
Sonly              F     # default value
#:list? Mesh.Sizes              F
XC.Use.BSC.CellXC              F     # default value
Read-H-from-file              F     # default value
compute-forces              T     # default value
debug-folding              F     # default value
Sonly              F     # default value
UseDIISforDMExtrapolation              T     # default value
UseSVDExperimental              F     # default value
UseSVD              T     # default value
Sonly              F     # default value
#:list? Mesh.Sizes              F
XC.Use.BSC.CellXC              F     # default value
Read-H-from-file              F     # default value
compute-forces              T     # default value
debug-folding              F     # default value
Sonly              F     # default value
UseDIISforDMExtrapolation              T     # default value
UseSVDExperimental              F     # default value
UseSVD              T     # default value
Sonly              F     # default value
#:list? Mesh.Sizes              F
XC.Use.BSC.CellXC              F     # default value
Read-H-from-file              F     # default value
compute-forces              T     # default value
debug-folding              F     # default value
Sonly              F     # default value
UseDIISforDMExtrapolation              T     # default value
UseSVDExperimental              F     # default value
UseSVD              T     # default value
Sonly              F     # default value
#:list? Mesh.Sizes              F
XC.Use.BSC.CellXC              F     # default value
Read-H-from-file              F     # default value
compute-forces              T     # default value
debug-folding              F     # default value
Sonly              F     # default value
UseDIISforDMExtrapolation              T     # default value
UseSVDExperimental              F     # default value
UseSVD              T     # default value
Sonly              F     # default value
#:list? Mesh.Sizes              F
XC.Use.BSC.CellXC              F     # default value
Read-H-from-file              F     # default value
compute-forces              T     # default value
debug-folding              F     # default value
Sonly              F     # default value
UseDIISforDMExtrapolation              T     # default value
UseSVDExperimental              F     # default value
UseSVD              T     # default value
Sonly              F     # default value
#:list? Mesh.Sizes              F
XC.Use.BSC.CellXC              F     # default value
Read-H-from-file              F     # default value
compute-forces              T     # default value
debug-folding              F     # default value
Sonly              F     # default value
UseDIISforDMExtrapolation              T     # default value
UseSVDExperimental              F     # default value
UseSVD              T     # default value
Sonly              F     # default value
#:list? Mesh.Sizes              F
XC.Use.BSC.CellXC              F     # default value
Read-H-from-file              F     # default value
compute-forces              T     # default value
debug-folding              F     # default value
Sonly              F     # default value
UseDIISforDMExtrapolation              T     # default value
UseSVDExperimental              F     # default value
UseSVD              T     # default value
Sonly              F     # default value
#:list? Mesh.Sizes              F
XC.Use.BSC.CellXC              F     # default value
Read-H-from-file              F     # default value
compute-forces              T     # default value
debug-folding              F     # default value
Sonly              F     # default value
UseDIISforDMExtrapolation              T     # default value
UseSVDExperimental              F     # default value
UseSVD              T     # default value
Sonly              F     # default value
#:list? Mesh.Sizes              F
XC.Use.BSC.CellXC              F     # default value
Read-H-from-file              F     # default value
compute-forces              T     # default value
debug-folding              F     # default value
Sonly              F     # default value
UseDIISforDMExtrapolation              T     # default value
UseSVDExperimental              F     # default value
UseSVD              T     # default value
Sonly              F     # default value
#:list? Mesh.Sizes              F
XC.Use.BSC.CellXC              F     # default value
Read-H-from-file              F     # default value
compute-forces              T     # default value
debug-folding              F     # default value
Sonly              F     # default value
UseDIISforDMExtrapolation              T     # default value
UseSVDExperimental              F     # default value
UseSVD              T     # default value
Sonly              F     # default value
#:list? Mesh.Sizes              F
XC.Use.BSC.CellXC              F     # default value
Read-H-from-file              F     # default value
compute-forces              T     # default value
debug-folding              F     # default value
Sonly              F     # default value
UseDIISforDMExtrapolation              T     # default value
UseSVDExperimental              F     # default value
UseSVD              T     # default value
Sonly              F     # default value
#:list? Mesh.Sizes              F
XC.Use.BSC.CellXC              F     # default value
Read-H-from-file              F     # default value
compute-forces              T     # default value
debug-folding              F     # default value
Sonly              F     # default value
UseDIISforDMExtrapolation              T     # default value
UseSVDExperimental              F     # default value
UseSVD              T     # default value
Sonly              F     # default value
#:list? Mesh.Sizes              F
XC.Use.BSC.CellXC              F     # default value
Read-H-from-file              F     # default value
compute-forces              T     # default value
debug-folding              F     # default value
Sonly              F     # default value
UseDIISforDMExtrapolation              T     # default value
UseSVDExperimental              F     # default value
UseSVD              T     # default value
Sonly              F     # default value
[...]
Read-H-from-file              F     # default value
compute-forces              T     # default value
debug-folding              F     # default value
Sonly              F     # default value
UseDIISforDMExtrapolation              T     # default value
UseSVDExperimental              F     # default value
UseSVD              T     # default value
Sonly              F     # default value
#:list? Mesh.Sizes              F
XC.Use.BSC.CellXC              F     # default value
Read-H-from-file              F     # default value
compute-forces              T     # default value
debug-folding              F     # default value
Sonly              F     # default value
UseDIISforDMExtrapolation              T     # default value
UseSVDExperimental              F     # default value
UseSVD              T     # default value
Sonly              F     # default value
#:list? Mesh.Sizes              F
XC.Use.BSC.CellXC              F     # default value
Read-H-from-file              F     # default value
compute-forces              T     # default value
debug-folding              F     # default value
Sonly              F     # default value
UseDIISforDMExtrapolation              T     # default value
UseSVDExperimental              F     # default value
UseSVD              T     # default value
Sonly              F     # default value
#:list? Mesh.Sizes              F
XC.Use.BSC.CellXC              F     # default value
Read-H-from-file              F     # default value
compute-forces              T     # default value
debug-folding              F     # default value
Sonly              F     # default value
UseDIISforDMExtrapolation              T     # default value
UseSVDExperimental              F     # default value
UseSVD              T     # default value
Sonly              F     # default value
#:list? Mesh.Sizes              F
XC.Use.BSC.CellXC              F     # default value
Read-H-from-file              F     # default value
compute-forces              T     # default value
debug-folding              F     # default value
Sonly              F     # default value
UseDIISforDMExtrapolation              T     # default value
UseSVDExperimental              F     # default value
UseSVD              T     # default value
Sonly              F     # default value
#:list? Mesh.Sizes              F
XC.Use.BSC.CellXC              F     # default value
Read-H-from-file              F     # default value
compute-forces              T     # default value
debug-folding              F     # default value
Sonly              F     # default value
UseDIISforDMExtrapolation              T     # default value
UseSVDExperimental              F     # default value
UseSVD              T     # default value
Sonly              F     # default value
#:list? Mesh.Sizes              F
XC.Use.BSC.CellXC              F     # default value
Read-H-from-file              F     # default value
compute-forces              T     # default value
debug-folding              F     # default value
Sonly              F     # default value
UseDIISforDMExtrapolation              T     # default value
UseSVDExperimental              F     # default value
UseSVD              T     # default value
Sonly              F     # default value
#:list? Mesh.Sizes              F
XC.Use.BSC.CellXC              F     # default value
Read-H-from-file              F     # default value
compute-forces              T     # default value
debug-folding              F     # default value
Sonly              F     # default value
UseDIISforDMExtrapolation              T     # default value
UseSVDExperimental              F     # default value
UseSVD              T     # default value
Sonly              F     # default value
#:list? Mesh.Sizes              F
XC.Use.BSC.CellXC              F     # default value
Read-H-from-file              F     # default value
compute-forces              T     # default value
debug-folding              F     # default value
Sonly              F     # default value
UseDIISforDMExtrapolation              T     # default value
UseSVDExperimental              F     # default value
UseSVD              T     # default value
Sonly              F     # default value
#:list? Mesh.Sizes              F
XC.Use.BSC.CellXC              F     # default value
Read-H-from-file              F     # default value
compute-forces              T     # default value
debug-folding              F     # default value
Sonly              F     # default value
UseDIISforDMExtrapolation              T     # default value
UseSVDExperimental              F     # default value
UseSVD              T     # default value
Sonly              F     # default value
#:list? Mesh.Sizes              F
XC.Use.BSC.CellXC              F     # default value
Read-H-from-file              F     # default value
compute-forces              T     # default value
debug-folding              F     # default value
Sonly              F     # default value
UseDIISforDMExtrapolation              T     # default value
UseSVDExperimental              F     # default value
UseSVD              T     # default value
Sonly              F     # default value
#:list? Mesh.Sizes              F
XC.Use.BSC.CellXC              F     # default value
Read-H-from-file              F     # default value
compute-forces              T     # default value
debug-folding              F     # default value
Sonly              F     # default value
UseDIISforDMExtrapolation              T     # default value
UseSVDExperimental              F     # default value
UseSVD              T     # default value
Sonly              F     # default value
#:list? Mesh.Sizes              F
XC.Use.BSC.CellXC              F     # default value
Read-H-from-file              F     # default value
compute-forces              T     # default value
debug-folding              F     # default value
Sonly              F     # default value
UseDIISforDMExtrapolation              T     # default value
UseSVDExperimental              F     # default value
UseSVD              T     # default value
Sonly              F     # default value
#:list? Mesh.Sizes              F
XC.Use.BSC.CellXC              F     # default value
Read-H-from-file              F     # default value
compute-forces              T     # default value
debug-folding              F     # default value
Sonly              F     # default value
UseDIISforDMExtrapolation              T     # default value
UseSVDExperimental              F     # default value
UseSVD              T     # default value
Sonly              F     # default value
#:list? Mesh.Sizes              F
XC.Use.BSC.CellXC              F     # default value
Read-H-from-file              F     # default value
compute-forces              T     # default value
debug-folding              F     # default value
Sonly              F     # default value
UseDIISforDMExtrapolation              T     # default value
UseSVDExperimental              F     # default value
UseSVD              T     # default value
Sonly              F     # default value
#:list? Mesh.Sizes              F
XC.Use.BSC.CellXC              F     # default value
Read-H-from-file              F     # default value
compute-forces              T     # default value
debug-folding              F     # default value
Sonly              F     # default value
UseDIISforDMExtrapolation              T     # default value
UseSVDExperimental              F     # default value
UseSVD              T     # default value
Sonly              F     # default value
#:list? Mesh.Sizes              F
XC.Use.BSC.CellXC              F     # default value
Read-H-from-file              F     # default value
compute-forces              T     # default value
debug-folding              F     # default value
Sonly              F     # default value
UseDIISforDMExtrapolation              T     # default value
UseSVDExperimental              F     # default value
UseSVD              T     # default value
Sonly              F     # default value
#:list? Mesh.Sizes              F
XC.Use.BSC.CellXC              F     # default value
Read-H-from-file              F     # default value
compute-forces              T     # default value
debug-folding              F     # default value
Sonly              F     # default value
UseDIISforDMExtrapolation              T     # default value
UseSVDExperimental              F     # default value
UseSVD              T     # default value
Sonly              F     # default value
#:list? Mesh.Sizes              F
XC.Use.BSC.CellXC              F     # default value
Read-H-from-file              F     # default value
compute-forces              T     # default value
debug-folding              F     # default value
Sonly              F     # default value
UseDIISforDMExtrapolation              T     # default value
UseSVDExperimental              F     # default value
UseSVD              T     # default value
Sonly              F     # default value
#:list? Mesh.Sizes              F
XC.Use.BSC.CellXC              F     # default value
Read-H-from-file              F     # default value
compute-forces              T     # default value
debug-folding              F     # default value
Sonly              F     # default value
UseDIISforDMExtrapolation              T     # default value
UseSVDExperimental              F     # default value
UseSVD              T     # default value
Sonly              F     # default value
#:list? Mesh.Sizes              F
XC.Use.BSC.CellXC              F     # default value
Read-H-from-file              F     # default value
compute-forces              T     # default value
debug-folding              F     # default value
Sonly              F     # default value
UseDIISforDMExtrapolation              T     # default value
UseSVDExperimental              F     # default value
UseSVD              T     # default value
Sonly              F     # default value
#:list? Mesh.Sizes              F
XC.Use.BSC.CellXC              F     # default value
Read-H-from-file              F     # default value
compute-forces              T     # default value
debug-folding              F     # default value
Sonly              F     # default value
UseDIISforDMExtrapolation              T     # default value
UseSVDExperimental              F     # default value
UseSVD              T     # default value
Sonly              F     # default value
#:list? Mesh.Sizes              F
XC.Use.BSC.CellXC              F     # default value
Read-H-from-file              F     # default value
compute-forces              T     # default value
debug-folding              F     # default value
Sonly              F     # default value
UseDIISforDMExtrapolation              T     # default value
UseSVDExperimental              F     # default value
UseSVD              T     # default value
Sonly              F     # default value
#:list? Mesh.Sizes              F
XC.Use.BSC.CellXC              F     # default value
Read-H-from-file              F     # default value
compute-forces              T     # default value
debug-folding              F     # default value
Sonly              F     # default value
UseDIISforDMExtrapolation              T     # default value
UseSVDExperimental              F     # default value
UseSVD              T     # default value
Sonly              F     # default value
#:list? Mesh.Sizes              F
XC.Use.BSC.CellXC              F     # default value
Read-H-from-file              F     # default value
compute-forces              T     # default value
debug-folding              F     # default value
Sonly              F     # default value
UseDIISforDMExtrapolation              T     # default value
UseSVDExperimental              F     # default value
UseSVD              T     # default value
Sonly              F     # default value
#:list? Mesh.Sizes              F
XC.Use.BSC.CellXC              F     # default value
Read-H-from-file              F     # default value
compute-forces              T     # default value
debug-folding              F     # default value
Sonly              F     # default value
UseDIISforDMExtrapolation              T     # default value
UseSVDExperimental              F     # default value
UseSVD              T     # default value
Sonly              F     # default value
#:list? Mesh.Sizes              F
XC.Use.BSC.CellXC              F     # default value
Read-H-from-file              F     # default value
compute-forces              T     # default value
debug-folding              F     # default value
Sonly              F     # default value
UseDIISforDMExtrapolation              T     # default value
UseSVDExperimental              F     # default value
UseSVD              T     # default value
Sonly              F     # default value
#:list? Mesh.Sizes              F
XC.Use.BSC.CellXC              F     # default value
Read-H-from-file              F     # default value
compute-forces              T     # default value
debug-folding              F     # default value
Sonly              F     # default value
UseDIISforDMExtrapolation              T     # default value
UseSVDExperimental              F     # default value
UseSVD              T     # default value
Sonly              F     # default value
#:list? Mesh.Sizes              F
XC.Use.BSC.CellXC              F     # default value
Read-H-from-file              F     # default value
compute-forces              T     # default value
debug-folding              F     # default value
Sonly              F     # default value
UseDIISforDMExtrapolation              T     # default value
UseSVDExperimental              F     # default value
UseSVD              T     # default value
Sonly              F     # default value
#:list? Mesh.Sizes              F
XC.Use.BSC.CellXC              F     # default value
Read-H-from-file              F     # default value
compute-forces              T     # default value
debug-folding              F     # default value
Sonly              F     # default value
UseDIISforDMExtrapolation              T     # default value
UseSVDExperimental              F     # default value
UseSVD              T     # default value
Sonly              F     # default value
#:list? Mesh.Sizes              F
XC.Use.BSC.CellXC              F     # default value
Read-H-from-file              F     # default value
compute-forces              T     # default value
debug-folding              F     # default value
Sonly              F     # default value
UseDIISforDMExtrapolation              T     # default value
UseSVDExperimental              F     # default value
UseSVD              T     # default value
Sonly              F     # default value
#:list? Mesh.Sizes              F
XC.Use.BSC.CellXC              F     # default value
Read-H-from-file              F     # default value
compute-forces              T     # default value
debug-folding              F     # default value
Sonly              F     # default value
UseDIISforDMExtrapolation              T     # default value
UseSVDExperimental              F     # default value
UseSVD              T     # default value
Sonly              F     # default value
#:list? Mesh.Sizes              F
XC.Use.BSC.CellXC              F     # default value
Read-H-from-file              F     # default value
compute-forces              T     # default value
debug-folding              F     # default value
Sonly              F     # default value
UseDIISforDMExtrapolation              T     # default value
UseSVDExperimental              F     # default value
UseSVD              T     # default value
Sonly              F     # default value
#:list? Mesh.Sizes              F
XC.Use.BSC.CellXC              F     # default value
Read-H-from-file              F     # default value
compute-forces              T     # default value
debug-folding              F     # default value
Sonly              F     # default value
UseDIISforDMExtrapolation              T     # default value
UseSVDExperimental              F     # default value
UseSVD              T     # default value
Sonly              F     # default value
#:list? Mesh.Sizes              F
XC.Use.BSC.CellXC              F     # default value
Read-H-from-file              F     # default value
compute-forces              T     # default value
debug-folding              F     # default value
Sonly              F     # default value
UseDIISforDMExtrapolation              T     # default value
UseSVDExperimental              F     # default value
UseSVD              T     # default value
Sonly              F     # default value
#:list? Mesh.Sizes              F
XC.Use.BSC.CellXC              F     # default value
Read-H-from-file              F     # default value
compute-forces              T     # default value
debug-folding              F     # default value
Sonly              F     # default value
UseDIISforDMExtrapolation              T     # default value
UseSVDExperimental              F     # default value
UseSVD              T     # default value
Sonly              F     # default value
#:list? Mesh.Sizes              F
XC.Use.BSC.CellXC              F     # default value
Read-H-from-file              F     # default value
compute-forces              T     # default value
debug-folding              F     # default value
Sonly              F     # default value
UseDIISforDMExtrapolation              T     # default value
UseSVDExperimental              F     # default value
UseSVD              T     # default value
Sonly              F     # default value
#:list? Mesh.Sizes              F
XC.Use.BSC.CellXC              F     # default value
Read-H-from-file              F     # default value
compute-forces              T     # default value
debug-folding              F     # default value
Sonly              F     # default value
UseDIISforDMExtrapolation              T     # default value
UseSVDExperimental              F     # default value
UseSVD              T     # default value
Sonly              F     # default value
#:list? Mesh.Sizes              F
XC.Use.BSC.CellXC              F     # default value
Read-H-from-file              F     # default value
compute-forces              T     # default value
debug-folding              F     # default value
Sonly              F     # default value
UseDIISforDMExtrapolation              T     # default value
UseSVDExperimental              F     # default value
UseSVD              T     # default value
Sonly              F     # default value
#:list? Mesh.Sizes              F
XC.Use.BSC.CellXC              F     # default value
Read-H-from-file              F     # default value
compute-forces              T     # default value
debug-folding              F     # default value
Sonly              F     # default value
UseDIISforDMExtrapolation              T     # default value
UseSVDExperimental              F     # default value
UseSVD              T     # default value
Sonly              F     # default value
#:list? Mesh.Sizes              F
XC.Use.BSC.CellXC              F     # default value
Read-H-from-file              F     # default value
compute-forces              T     # default value
debug-folding              F     # default value
Sonly              F     # default value
UseDIISforDMExtrapolation              T     # default value
UseSVDExperimental              F     # default value
UseSVD              T     # default value
Sonly              F     # default value
#:list? Mesh.Sizes              F
XC.Use.BSC.CellXC              F     # default value
Read-H-from-file              F     # default value
compute-forces              T     # default value
Read-H-from-file              F     # default value
WriteCoorXmol              T
WriteCoorCerius              F     # default value
WFS.Write.For.Bands              F     # default value
BasisPressure         0.2000000000     GPa     # default value
OpticalCalculation              F     # default value
